 Gaussian 09, Revision D.01,
 Gaussian 09:  ES64L-G09RevD.01 24-Apr-2013

 ----------------------------------------------------------------------
 #p b3lyp/6-311G(d,p) scf=(maxcycle=2048,cdiis,conver=8) symmetry=(on,l
 oose) int=superfine opt=tight
 ----------------------------------------------------------------------

 ----
 benz
 ----
 Symbolic Z-matrix:
 Charge =  0 Multiplicity = 1

 SCF Done:  E(RB3LYP) =  -155.823238913     A.U. after   14 cycles
 SCF Done:  E(RB3LYP) =  -155.911008767     A.U. after   13 cycles
 SCF Done:  E(RB3LYP) =  -156.011252477     A.U. after   13 cycles
 SCF Done:  E(RB3LYP) =  -156.036244222     A.U. after   13 cycles
 SCF Done:  E(RB3LYP) =  -156.019360939     A.U. after   14 cycles
 SCF Done:  E(RB3LYP) =  -156.037425606     A.U. after   10 cycles
 SCF Done:  E(RB3LYP) =  -156.034685301     A.U. after   12 cycles
 SCF Done:  E(RB3LYP) =  -156.038182369     A.U. after    8 cycles
 SCF Done:  E(RB3LYP) =  -156.038128354     A.U. after   11 cycles
 SCF Done:  E(RB3LYP) =  -156.038415193     A.U. after    7 cycles
 SCF Done:  E(RB3LYP) =  -156.038260181     A.U. after   10 cycles
 SCF Done:  E(RB3LYP) =  -156.038499401     A.U. after    5 cycles
 SCF Done:  E(RB3LYP) =  -156.038482233     A.U. after    9 cycles
 SCF Done:  E(RB3LYP) =  -156.038503200     A.U. after    9 cycles
 SCF Done:  E(RB3LYP) =  -156.038505025     A.U. after    8 cycles
 SCF Done:  E(RB3LYP) =  -156.038504653     A.U. after    8 cycles
 SCF Done:  E(RB3LYP) =  -156.038505489     A.U. after    7 cycles
 SCF Done:  E(RB3LYP) =  -156.038505591     A.U. after    7 cycles
 SCF Done:  E(RB3LYP) =  -156.038505590     A.U. after    6 cycles
 SCF Done:  E(RB3LYP) =  -156.038505599     A.U. after    6 cycles
 Optimization completed.
    -- Stationary point found.

                         Standard orientation:
 ---------------------------------------------------------------------
 Center     Atomic      Atomic             Coordinates (Angstroms)
 Number     Number       Type             X           Y           Z
 ---------------------------------------------------------------------
      1          6           0       -0.608665   -0.399423    0.000000
      2          6           0       -1.844863    0.109574    0.000000
      3          6           0        1.844864   -0.109573    0.000000
      4          6           0        0.608665    0.399421    0.000000
      5          1           0        0.476250    1.479596    0.000000
      6          1           0        2.722307    0.525768    0.000000
      7          1           0       -2.015661    1.181623   -0.000002
      8          1           0       -0.476256   -1.479599    0.000000
      9          1           0        2.015666   -1.181618   -0.000002
     10          1           0       -2.722310   -0.525764    0.000000
 ---------------------------------------------------------------------

 The electronic state is 1-A.
 Alpha  occ. eigenvalues --  -10.17925 -10.17890 -10.16910 -10.16910  -0.81011
 Alpha  occ. eigenvalues --   -0.73824  -0.60903  -0.55615  -0.47196  -0.46724
 Alpha  occ. eigenvalues --   -0.40010  -0.39047  -0.34992  -0.33009  -0.23960
 Alpha virt. eigenvalues --   -0.03434   0.06182   0.06456   0.06626   0.07138
 Alpha virt. eigenvalues --    0.11869   0.12764   0.14564   0.24496   0.27239
 Alpha virt. eigenvalues --    0.31122   0.32330   0.36048   0.38447   0.38568

 Mulliken charges:
               1
     1  C   -0.107043
     2  C   -0.200188
     3  C   -0.200188
     4  C   -0.107044
     5  H    0.094399
     6  H    0.110137
     7  H    0.102695
     8  H    0.094399
     9  H    0.102695
    10  H    0.110137
 Sum of Mulliken charges =   0.00000

 Dipole moment (field-independent basis, Debye):
    X=              0.0000    Y=              0.0000    Z=              0.0000  Tot=              0.0000
 Quadrupole moment (field-independent basis, Debye-Ang):
   XX=            -23.2527   YY=            -22.9699   ZZ=            -28.7137
   XY=             -0.0108   XZ=              0.0000   YZ=              0.0000

 Normal termination of Gaussian 09 at Tue Sep 17 15:38:21 2019.
