 Gaussian 09, Revision D.01,
 Gaussian 09:  ES64L-G09RevD.01 24-Apr-2013

 ----------------------------------------------------------------------
 #p b3lyp/6-311G(d,p) scf=(maxcycle=2048,cdiis,conver=8) symmetry=(on,l
 oose) int=superfine opt=tight
 ----------------------------------------------------------------------

 ----
 benz
 ----
 Symbolic Z-matrix:
 Charge =  0 Multiplicity = 1

 SCF Done:  E(RB3LYP) =  -232.206275523     A.U. after    9 cycles
 SCF Done:  E(RB3LYP) =  -232.270003102     A.U. after    9 cycles
 SCF Done:  E(RB3LYP) =  -232.308288472     A.U. after    9 cycles
 SCF Done:  E(RB3LYP) =  -232.308533674     A.U. after    6 cycles
 SCF Done:  E(RB3LYP) =  -232.308545080     A.U. after    6 cycles
 SCF Done:  E(RB3LYP) =  -232.308545096     A.U. after    4 cycles
 Optimization completed.
    -- Stationary point found.

                         Standard orientation:
 ---------------------------------------------------------------------
 Center     Atomic      Atomic             Coordinates (Angstroms)
 Number     Number       Type             X           Y           Z
 ---------------------------------------------------------------------
      1          6           0        0.000000    1.393918    0.000000
      2          6           0        1.207168    0.696959    0.000000
      3          6           0        1.207168   -0.696959    0.000000
      4          6           0        0.000000   -1.393918    0.000000
      5          6           0       -1.207168   -0.696959    0.000000
      6          6           0       -1.207168    0.696959    0.000000
      7          1           0       -2.146301    1.239167    0.000000
      8          1           0       -2.146301   -1.239167    0.000000
      9          1           0        0.000000   -2.478334    0.000000
     10          1           0        2.146301   -1.239167    0.000000
     11          1           0        2.146301    1.239167    0.000000
     12          1           0        0.000000    2.478334    0.000000
 ---------------------------------------------------------------------

 The electronic state is 1-A1G.
 Alpha  occ. eigenvalues --  -10.17464 -10.17440 -10.17440 -10.17385 -10.17385
 Alpha  occ. eigenvalues --  -10.17358  -0.85617  -0.74804  -0.74804  -0.60499
 Alpha  occ. eigenvalues --   -0.60499  -0.52670  -0.46364  -0.44971  -0.42475
 Alpha  occ. eigenvalues --   -0.42475  -0.36973  -0.34765  -0.34765  -0.25638
 Alpha  occ. eigenvalues --   -0.25638
 Alpha virt. eigenvalues --   -0.00942  -0.00942   0.04233   0.07701   0.07701
 Alpha virt. eigenvalues --    0.11088   0.11088   0.13666   0.14819   0.26842
 Alpha virt. eigenvalues --    0.26842   0.28454   0.28454   0.30483   0.34301

 Mulliken charges:
               1
     1  C   -0.094506
     2  C   -0.094506
     3  C   -0.094506
     4  C   -0.094506
     5  C   -0.094506
     6  C   -0.094506
     7  H    0.094506
     8  H    0.094506
     9  H    0.094506
    10  H    0.094506
    11  H    0.094506
    12  H    0.094506
 Sum of Mulliken charges =   0.00000

 Dipole moment (field-independent basis, Debye):
    X=              0.0000    Y=              0.0000    Z=              0.0000  Tot=              0.0000
 Quadrupole moment (field-independent basis, Debye-Ang):
   XX=            -31.8556   YY=            -31.8556   ZZ=            -39.6201
   XY=              0.0000   XZ=              0.0000   YZ=              0.0000

 Normal termination of Gaussian 09 at Thu Aug 22 16:09:04 2019.
